LAMMPS 3d granular data file

132 atoms
0 bonds
0 angles
0 dihedrals
0 impropers

3 atom types
0 bond types
0 angle types
0 dihedral types
0 improper types

-2.5 2.5 xlo xhi
-2.5 2.5 ylo yhi
-2 51.1 zlo zhi


Atoms

1 2 2.600  0.050 -1.8500 -1.8500 1.4075
2 2 2.600  0.050 -1.8500 -0.5500 1.6668
3 2 2.600  0.050 -1.8500 0.7500 0.8482
4 2 2.600  0.050 -1.8500 2.0500 1.4724
5 2 2.600  0.050 -0.5500 -1.8500 1.3638
6 2 2.600  0.050 -0.5500 -0.5500 1.0385
7 2 2.600  0.050 -0.5500 0.7500 1.2133
8 2 2.600  0.050 -0.5500 2.0500 1.3685
9 2 2.600  0.050 0.7500 -1.8500 2.0157
10 2 2.600  0.050 0.7500 -0.5500 1.8539
11 2 2.600  0.050 0.7500 0.7500 1.0300
12 2 2.600  0.050 0.7500 2.0500 1.9070
13 2 2.600  0.050 2.0500 -1.8500 1.4451
14 2 2.600  0.050 2.0500 -0.5500 1.2874
15 2 2.600  0.050 2.0500 0.7500 1.4429
16 2 2.600  0.050 2.0500 2.0500 1.2590
17 3 2.600  0.050 -1.8500 -1.8500 15.8167
18 3 2.600  0.050 -1.8500 -0.5500 16.1394
19 3 2.600  0.050 -1.8500 0.7500 16.1233
20 3 2.600  0.050 -1.8500 2.0500 16.1249
21 3 2.600  0.050 -0.5500 -1.8500 15.9758
22 3 2.600  0.050 -0.5500 -0.5500 15.6000
23 3 2.600  0.050 -0.5500 0.7500 15.9849
24 3 2.600  0.050 -0.5500 2.0500 16.1675
25 3 2.600  0.050 0.7500 -1.8500 15.9393
26 3 2.600  0.050 0.7500 -0.5500 16.0484
27 3 2.600  0.050 0.7500 0.7500 15.9869
28 3 2.600  0.050 0.7500 2.0500 15.7808
29 3 2.600  0.050 2.0500 -1.8500 15.9003
30 3 2.600  0.050 2.0500 -0.5500 15.6840
31 3 2.600  0.050 2.0500 0.7500 16.0192
32 3 2.600  0.050 2.0500 2.0500 15.6121
33 1 1.268  1.000 -0.9123 -0.9134 2.6000
34 1 0.884  1.000 -1.2466 0.4648 2.6000
35 1 1.175  1.000 -0.9489 1.9759 2.6000
36 1 1.279  1.000 0.4434 -0.9451 2.6000
37 1 1.064  1.000 0.7080 0.2797 2.6000
38 1 1.325  1.000 0.2506 1.9079 2.6000
39 1 1.212  1.000 1.9812 -0.8636 2.6000
40 1 1.043  1.000 1.9622 0.5982 2.6000
41 1 1.175  1.000 1.9805 1.8127 2.6000
42 1 1.039  1.000 -0.8649 -1.1849 3.6000
43 1 0.917  1.000 -1.0888 0.2962 3.6000
44 1 1.072  1.000 -0.8576 1.7539 3.6000
45 1 1.007  1.000 0.4857 -1.0384 3.6000
46 1 0.927  1.000 0.2679 0.5778 3.6000
47 1 1.354  1.000 0.3379 2.1115 3.6000
48 1 1.044  1.000 2.1109 -0.9844 3.6000
49 1 1.546  1.000 1.9867 0.3044 3.6000
50 1 0.941  1.000 1.8264 2.0659 3.6000
51 1 1.113  1.000 -1.0794 -1.1868 4.6000
52 1 1.317  1.000 -0.9463 0.3172 4.6000
53 1 1.546  1.000 -1.1541 1.7993 4.6000
54 1 1.061  1.000 0.6192 -1.1790 4.6000
55 1 0.842  1.000 0.3714 0.3341 4.6000
56 1 1.161  1.000 0.7087 1.8481 4.6000
57 1 0.736  1.000 1.8845 -1.0913 4.6000
58 1 0.945  1.000 2.1328 0.4082 4.6000
59 1 1.054  1.000 1.8443 1.8588 4.6000
60 1 1.298  1.000 -1.1063 -1.1245 5.6000
61 1 1.287  1.000 -1.2044 0.6965 5.6000
62 1 0.994  1.000 -0.9619 2.1016 5.6000
63 1 1.185  1.000 0.5917 -0.9721 5.6000
64 1 0.936  1.000 0.5233 0.3422 5.6000
65 1 1.132  1.000 0.4629 1.8560 5.6000
66 1 1.383  1.000 2.0722 -1.2113 5.6000
67 1 1.031  1.000 2.0738 0.7069 5.6000
68 1 0.940  1.000 2.0895 2.1034 5.6000
69 1 0.900  1.000 -0.9321 -0.9711 6.6000
70 1 1.143  1.000 -0.7774 0.4067 6.6000
71 1 1.267  1.000 -1.1455 1.8331 6.6000
72 1 1.425  1.000 0.6046 -0.9388 6.6000
73 1 1.011  1.000 0.3681 0.7440 6.6000
74 1 1.033  1.000 0.3097 1.8352 6.6000
75 1 0.873  1.000 2.0537 -1.1211 6.6000
76 1 1.322  1.000 1.9751 0.4484 6.6000
77 1 0.985  1.000 1.9794 1.7870 6.6000
78 1 0.905  1.000 -0.9190 -0.9080 7.6000
79 1 1.437  1.000 -0.8649 0.4512 7.6000
80 1 1.162  1.000 -1.0749 2.2414 7.6000
81 1 1.143  1.000 0.5810 -1.0489 7.6000
82 1 0.799  1.000 0.4581 0.5603 7.6000
83 1 1.087  1.000 0.6710 1.8272 7.6000
84 1 1.104  1.000 2.1665 -1.0593 7.6000
85 1 0.782  1.000 1.8782 0.3306 7.6000
86 1 0.955  1.000 2.0567 2.1291 7.6000
87 1 0.919  1.000 -0.9589 -0.8144 8.6000
88 1 1.106  1.000 -0.9796 0.4254 8.6000
89 1 0.799  1.000 -0.8150 2.0928 8.6000
90 1 1.218  1.000 0.3824 -1.1029 8.6000
91 1 1.357  1.000 0.4090 0.5153 8.6000
92 1 0.939  1.000 0.3096 2.1662 8.6000
93 1 0.998  1.000 2.2199 -0.9513 8.6000
94 1 1.101  1.000 2.0728 0.4177 8.6000
95 1 1.241  1.000 1.9897 1.8996 8.6000
96 1 1.104  1.000 -0.9303 -1.0237 9.6000
97 1 1.079  1.000 -0.9776 0.4613 9.6000
98 1 0.903  1.000 -0.9263 1.9298 9.6000
99 1 0.954  1.000 0.5219 -0.9708 9.6000
100 1 1.123  1.000 0.6105 0.6213 9.6000
101 1 1.337  1.000 0.5112 1.9622 9.6000
102 1 1.114  1.000 2.2469 -1.0353 9.6000
103 1 0.759  1.000 1.8593 0.3124 9.6000
104 1 1.087  1.000 1.8029 1.7622 9.6000
105 1 0.982  1.000 -1.1952 -1.1049 10.6000
106 1 0.951  1.000 -1.2182 0.4088 10.6000
107 1 0.956  1.000 -1.0477 2.0768 10.6000
108 1 0.824  1.000 0.4742 -0.7715 10.6000
109 1 0.936  1.000 0.4329 0.7179 10.6000
110 1 0.843  1.000 0.6318 1.9789 10.6000
111 1 0.927  1.000 2.0639 -1.1298 10.6000
112 1 1.023  1.000 2.1360 0.6319 10.6000
113 1 1.035  1.000 2.2164 2.1297 10.6000
114 1 0.957  1.000 -0.7636 -0.8797 11.6000
115 1 0.969  1.000 -1.1540 0.6218 11.6000
116 1 1.007  1.000 -1.1806 1.8030 11.6000
117 1 1.092  1.000 0.5981 -0.9092 11.6000
118 1 1.256  1.000 0.2969 0.4816 11.6000
119 1 1.124  1.000 0.5127 1.8561 11.6000
120 1 0.943  1.000 2.0152 -1.2007 11.6000
121 1 1.120  1.000 2.1806 0.6618 11.6000
122 1 0.951  1.000 1.9924 1.8375 11.6000
123 1 0.644  1.000 -1.0533 -1.1682 12.6000
124 1 0.531  1.000 -0.9143 0.5830 12.6000
125 1 0.657  1.000 -0.8794 2.1972 12.6000
126 1 0.953  1.000 0.5100 -0.9917 12.6000
127 1 0.876  1.000 0.4239 0.6014 12.6000
128 1 0.856  1.000 0.3250 1.8268 12.6000
129 1 1.008  1.000 2.0430 -0.7733 12.6000
130 1 0.868  1.000 1.8811 0.5204 12.6000
131 1 0.874  1.000 1.7722 2.0899 12.6000
132 1 1.122  1.000 -0.8725 -1.2317 13.6000
