LAMMPS 3d granular data file

86 atoms
0 bonds
0 angles
0 dihedrals
0 impropers

4 atom types
0 bond types
0 angle types
0 dihedral types
0 improper types

-2.5 2.5 xlo xhi
-2.5 2.5 ylo yhi
-2 33.1 zlo zhi


Atoms

1 2 2.600  0.050 -1.8500 -1.8500 1.4075
2 2 2.600  0.050 -1.8500 -0.5500 1.6668
3 2 2.600  0.050 -1.8500 0.7500 0.8482
4 2 2.600  0.050 -1.8500 2.0500 1.4724
5 2 2.600  0.050 -0.5500 -1.8500 1.3638
6 2 2.600  0.050 -0.5500 -0.5500 1.0385
7 2 2.600  0.050 -0.5500 0.7500 1.2133
8 2 2.600  0.050 -0.5500 2.0500 1.3685
9 2 2.600  0.050 0.7500 -1.8500 2.0157
10 2 2.600  0.050 0.7500 -0.5500 1.8539
11 2 2.600  0.050 0.7500 0.7500 1.0300
12 2 2.600  0.050 0.7500 2.0500 1.9070
13 2 2.600  0.050 2.0500 -1.8500 1.4451
14 2 2.600  0.050 2.0500 -0.5500 1.2874
15 2 2.600  0.050 2.0500 0.7500 1.4429
16 2 2.600  0.050 2.0500 2.0500 1.2590
17 3 2.600  0.050 -1.8500 -1.8500 9.8167
18 3 2.600  0.050 -1.8500 -0.5500 10.1394
19 3 2.600  0.050 -1.8500 0.7500 10.1233
20 3 2.600  0.050 -1.8500 2.0500 10.1249
21 3 2.600  0.050 -0.5500 -1.8500 9.9758
22 3 2.600  0.050 -0.5500 -0.5500 9.6000
23 3 2.600  0.050 -0.5500 0.7500 9.9849
24 3 2.600  0.050 -0.5500 2.0500 10.1675
25 3 2.600  0.050 0.7500 -1.8500 9.9393
26 3 2.600  0.050 0.7500 -0.5500 10.0484
27 3 2.600  0.050 0.7500 0.7500 9.9869
28 3 2.600  0.050 0.7500 2.0500 9.7808
29 3 2.600  0.050 2.0500 -1.8500 9.9003
30 3 2.600  0.050 2.0500 -0.5500 9.6840
31 3 2.600  0.050 2.0500 0.7500 10.0192
32 3 2.600  0.050 2.0500 2.0500 9.6121
33 1 0.841  1.000 -0.7976 -1.0533 2.6000
34 1 0.690  1.000 -0.9451 0.5857 2.6000
35 1 1.034  1.000 -0.9412 2.1206 2.6000
36 1 0.988  1.000 0.6797 -0.9900 2.6000
37 1 1.240  1.000 0.6527 0.4239 2.6000
38 1 1.160  1.000 0.5384 1.8250 2.6000
39 1 1.211  1.000 1.8415 -0.9570 2.6000
40 1 0.850  1.000 1.8700 0.3811 2.6000
41 1 0.813  1.000 2.1933 1.7722 2.6000
42 1 0.746  1.000 -1.2357 -0.8725 3.6000
43 1 1.100  1.000 -1.0050 0.3714 3.6000
44 1 1.558  1.000 -1.1660 1.9712 3.6000
45 1 1.146  1.000 0.7393 -0.9061 3.6000
46 1 0.845  1.000 0.6063 0.4296 3.6000
47 1 1.167  1.000 0.5002 2.1182 3.6000
48 1 0.774  1.000 1.9855 -1.0526 3.6000
49 1 0.715  1.000 1.7798 0.5917 3.6000
50 1 1.143  1.000 2.0910 2.1020 3.6000
51 1 0.844  1.000 -1.2288 -1.0288 4.6000
52 1 1.063  1.000 -1.2143 0.2598 4.6000
53 1 1.281  1.000 -0.9892 1.9154 4.6000
54 1 1.080  1.000 0.2984 -1.0378 4.6000
55 1 1.186  1.000 0.6591 0.3851 4.6000
56 1 0.679  1.000 0.6588 1.8485 4.6000
57 1 1.132  1.000 2.1112 -0.8391 4.6000
58 1 1.428  1.000 1.8249 0.4650 4.6000
59 1 1.108  1.000 2.0798 2.1939 4.6000
60 1 0.692  1.000 -0.9907 -1.0544 5.6000
61 1 0.959  1.000 -0.7635 0.6346 5.6000
62 1 0.900  1.000 -0.9255 1.9484 5.6000
63 1 1.077  1.000 0.6502 -0.8457 5.6000
64 1 1.082  1.000 0.4769 0.6275 5.6000
65 1 1.081  1.000 0.4662 1.9387 5.6000
66 1 0.927  1.000 2.1627 -1.1420 5.6000
67 1 0.880  1.000 1.7917 0.6452 5.6000
68 1 0.882  1.000 1.8166 2.2247 5.6000
69 1 1.171  1.000 -1.1633 -1.0862 6.6000
70 1 0.629  1.000 -1.0545 0.5856 6.6000
71 1 0.959  1.000 -0.8343 1.9693 6.6000
72 1 1.054  1.000 0.6517 -0.8332 6.6000
73 1 0.869  1.000 0.2802 0.6344 6.6000
74 1 1.095  1.000 0.4496 1.8336 6.6000
75 1 0.986  1.000 2.0134 -0.8190 6.6000
76 1 0.812  1.000 1.9584 0.7449 6.6000
77 1 1.032  1.000 2.0784 2.0072 6.6000
78 1 0.946  1.000 -0.9360 -0.8079 7.6000
79 1 0.918  1.000 -1.1040 0.5440 7.6000
80 1 0.858  1.000 -1.0342 1.8274 7.6000
81 1 1.012  1.000 0.2577 -1.1501 7.6000
82 1 0.631  1.000 0.7420 0.4535 7.6000
83 4 0.001  1.000 0.7420 0.4535 7.6001
84 4 0.001  1.000 0.7421 0.4535 7.6002
85 4 0.001  1.000 0.7422 0.4535 7.6003
86 4 0.001  1.000 0.7423 0.4535 7.6004