LAMMPS 3d granular data file written by packigns_creator.jl

54 atoms
0 bonds
0 angles
0 dihedrals
0 impropers

4 atom types

0.0 7.0 xlo xhi
0.0 7.0 ylo yhi
0.0 5.6 zlo zhi

Atoms

1 2 1.379803716338757 1 0.7 0.7 0.7 
2 2 1.263081554573687 1 2.1 0.7 0.7 
3 2 1.3106479280935432 1 3.5 0.7 0.7 
4 2 1.0149414586194991 1 4.9 0.7 0.7 
5 2 1.2329331886895274 1 6.3 0.7 0.7 
6 2 1.1698298392082935 1 0.7 2.1 0.7 
7 2 1.0331203964830054 1 2.1 2.1 0.7 
8 2 1.344324312393135 1 3.5 2.1 0.7 
9 2 1.2108406082797156 1 4.9 2.1 0.7 
10 2 1.3259488115238607 1 6.3 2.1 0.7 
11 2 1.090830001404735 1 0.7 3.5 0.7 
12 2 1.0793936467743863 1 2.1 3.5 0.7 
13 2 1.044607202877266 1 3.5 3.5 0.7 
14 2 1.0769593887314617 1 4.9 3.5 0.7 
15 2 1.105509534942691 1 6.3 3.5 0.7 
16 2 1.2494335080784205 1 0.7 4.9 0.7 
17 2 1.1484870293168261 1 2.1 4.9 0.7 
18 2 1.11438291765198 1 3.5 4.9 0.7 
19 2 1.220215982744521 1 4.9 4.9 0.7 
20 2 1.057135790442951 1 6.3 4.9 0.7 
21 2 1.0521079507207847 1 0.7 6.3 0.7 
22 2 1.0043999222704985 1 2.1 6.3 0.7 
23 2 1.3040033234040882 1 3.5 6.3 0.7 
24 2 1.0459923671834574 1 4.9 6.3 0.7 
25 2 1.0871628034234058 1 6.3 6.3 0.7 
26 1 1.0330015678101725 1 0.7 0.7 2.0999999999999996 
27 1 1.2601830935708593 1 2.1 0.7 2.0999999999999996 
76 3 1.1916441413561651 1 0.7 0.7 4.8999999999999995 
77 3 1.0459186836778944 1 2.1 0.7 4.8999999999999995 
78 3 1.0937077312308126 1 3.5 0.7 4.8999999999999995 
79 3 1.382103253544256 1 4.9 0.7 4.8999999999999995 
80 3 1.090394323190297 1 6.3 0.7 4.8999999999999995 
81 3 1.183038231179672 1 0.7 2.1 4.8999999999999995 
82 3 1.0532972398564446 1 2.1 2.1 4.8999999999999995 
83 3 1.0420073617789685 1 3.5 2.1 4.8999999999999995 
84 3 1.2195042069751454 1 4.9 2.1 4.8999999999999995 
85 3 1.3955089097140427 1 6.3 2.1 4.8999999999999995 
86 3 1.3202352137210647 1 0.7 3.5 4.8999999999999995 
87 3 1.276545078745988 1 2.1 3.5 4.8999999999999995 
88 3 1.295005577733141 1 3.5 3.5 4.8999999999999995 
89 3 1.2114793534626653 1 4.9 3.5 4.8999999999999995 
90 3 1.1055808967216687 1 6.3 3.5 4.8999999999999995 
91 3 1.1434570466811458 1 0.7 4.9 4.8999999999999995 
92 3 1.2121793361028645 1 2.1 4.9 4.8999999999999995 
93 3 1.0398186679574715 1 3.5 4.9 4.8999999999999995 
94 3 1.0948562307557976 1 4.9 4.9 4.8999999999999995 
95 3 1.1574741071777543 1 6.3 4.9 4.8999999999999995 
96 3 1.3351854342168623 1 0.7 6.3 4.8999999999999995 
97 3 1.1698579997953602 1 2.1 6.3 4.8999999999999995 
98 3 1.0965258571425243 1 3.5 6.3 4.8999999999999995 
99 3 1.0071661733253827 1 4.9 6.3 4.8999999999999995 
100 3 1.3439575730736357 1 6.3 6.3 4.8999999999999995 
101 4 1.3985693566337423 1 6.31 6.3 4.8999999999999995 
102 4 1.3985693566337423 1 6.32 6.3 4.8999999999999995 
103 4 1.3985693566337423 1 6.33 6.3 4.8999999999999995 
