LAMMPS 3d granular data file written by packigns_creator.jl

103 atoms
0 bonds
0 angles
0 dihedrals
0 impropers

4 atom types

0.0 7.0 xlo xhi
0.0 7.0 ylo yhi
0.0 5.6 zlo zhi

Atoms

1 2 1.379803716338757 1 0.7 0.7 0.7 
2 2 1.263081554573687 1 2.1 0.7 0.7 
3 2 1.3106479280935432 1 3.5 0.7 0.7 
4 2 1.0149414586194991 1 4.9 0.7 0.7 
5 2 1.2329331886895274 1 6.3 0.7 0.7 
6 2 1.1698298392082935 1 0.7 2.1 0.7 
7 2 1.0331203964830054 1 2.1 2.1 0.7 
8 2 1.344324312393135 1 3.5 2.1 0.7 
9 2 1.2108406082797156 1 4.9 2.1 0.7 
10 2 1.3259488115238607 1 6.3 2.1 0.7 
11 2 1.090830001404735 1 0.7 3.5 0.7 
12 2 1.0793936467743863 1 2.1 3.5 0.7 
13 2 1.044607202877266 1 3.5 3.5 0.7 
14 2 1.0769593887314617 1 4.9 3.5 0.7 
15 2 1.105509534942691 1 6.3 3.5 0.7 
16 2 1.2494335080784205 1 0.7 4.9 0.7 
17 2 1.1484870293168261 1 2.1 4.9 0.7 
18 2 1.11438291765198 1 3.5 4.9 0.7 
19 2 1.220215982744521 1 4.9 4.9 0.7 
20 2 1.057135790442951 1 6.3 4.9 0.7 
21 2 1.0521079507207847 1 0.7 6.3 0.7 
22 2 1.0043999222704985 1 2.1 6.3 0.7 
23 2 1.3040033234040882 1 3.5 6.3 0.7 
24 2 1.0459923671834574 1 4.9 6.3 0.7 
25 2 1.0871628034234058 1 6.3 6.3 0.7 
26 1 1.0330015678101725 1 0.7 0.7 2.0999999999999996 
27 1 1.2601830935708593 1 2.1 0.7 2.0999999999999996 
28 1 1.2728785375976501 1 3.5 0.7 2.0999999999999996 
29 1 1.1078490665366028 1 4.9 0.7 2.0999999999999996 
30 1 1.101757823044923 1 6.3 0.7 2.0999999999999996 
31 1 1.3816175967390607 1 0.7 2.1 2.0999999999999996 
32 1 1.0865819454933119 1 2.1 2.1 2.0999999999999996 
33 1 1.317021500763977 1 3.5 2.1 2.0999999999999996 
34 1 1.0044499600773937 1 4.9 2.1 2.0999999999999996 
35 1 1.3385885913339215 1 6.3 2.1 2.0999999999999996 
36 1 1.2300618325507249 1 0.7 3.5 2.0999999999999996 
37 1 1.3832862448667815 1 2.1 3.5 2.0999999999999996 
38 1 1.227009870090673 1 3.5 3.5 2.0999999999999996 
39 1 1.1357370360934824 1 4.9 3.5 2.0999999999999996 
40 1 1.37617590387191 1 6.3 3.5 2.0999999999999996 
41 1 1.289993183715675 1 0.7 4.9 2.0999999999999996 
42 1 1.06445242163355 1 2.1 4.9 2.0999999999999996 
43 1 1.3313603645914633 1 3.5 4.9 2.0999999999999996 
44 1 1.1533341478833612 1 4.9 4.9 2.0999999999999996 
45 1 1.3226281793640149 1 6.3 4.9 2.0999999999999996 
46 1 1.2691459749867804 1 0.7 6.3 2.0999999999999996 
47 1 1.035143754450954 1 2.1 6.3 2.0999999999999996 
48 1 1.275718336902997 1 3.5 6.3 2.0999999999999996 
49 1 1.0712762966519211 1 4.9 6.3 2.0999999999999996 
50 1 1.1184018580433621 1 6.3 6.3 2.0999999999999996 
51 1 1.1095404270168134 1 0.7 0.7 3.5 
52 1 1.221269898401802 1 2.1 0.7 3.5 
53 1 1.0468374449789453 1 3.5 0.7 3.5 
54 1 1.3090279963647167 1 4.9 0.7 3.5 
55 1 1.1733771365627221 1 6.3 0.7 3.5 
56 1 1.2637190880081177 1 0.7 2.1 3.5 
57 1 1.1241729159753833 1 2.1 2.1 3.5 
58 1 1.1030035727608334 1 3.5 2.1 3.5 
59 1 1.3766375814316691 1 4.9 2.1 3.5 
60 1 1.2077164801494629 1 6.3 2.1 3.5 
61 1 1.0270034904934582 1 0.7 3.5 3.5 
62 1 1.1424810056875832 1 2.1 3.5 3.5 
63 1 1.3450655532805174 1 3.5 3.5 3.5 
64 1 1.012478921249556 1 4.9 3.5 3.5 
65 1 1.3366999861458757 1 6.3 3.5 3.5 
66 1 1.3469956279967217 1 0.7 4.9 3.5 
67 1 1.3389649411127862 1 2.1 4.9 3.5 
68 1 1.2074690633837766 1 3.5 4.9 3.5 
69 1 1.2922630346479669 1 4.9 4.9 3.5 
70 1 1.244800769786122 1 6.3 4.9 3.5 
71 1 1.1917788154740558 1 0.7 6.3 3.5 
72 1 1.3264193202865828 1 2.1 6.3 3.5 
73 1 1.005149959913506 1 3.5 6.3 3.5 
74 1 1.0937657231237283 1 4.9 6.3 3.5 
75 1 1.1677572380740688 1 6.3 6.3 3.5 
76 3 1.1916441413561651 1 0.7 0.7 4.8999999999999995 
77 3 1.0459186836778944 1 2.1 0.7 4.8999999999999995 
78 3 1.0937077312308126 1 3.5 0.7 4.8999999999999995 
79 3 1.382103253544256 1 4.9 0.7 4.8999999999999995 
80 3 1.090394323190297 1 6.3 0.7 4.8999999999999995 
81 3 1.183038231179672 1 0.7 2.1 4.8999999999999995 
82 3 1.0532972398564446 1 2.1 2.1 4.8999999999999995 
83 3 1.0420073617789685 1 3.5 2.1 4.8999999999999995 
84 3 1.2195042069751454 1 4.9 2.1 4.8999999999999995 
85 3 1.3955089097140427 1 6.3 2.1 4.8999999999999995 
86 3 1.3202352137210647 1 0.7 3.5 4.8999999999999995 
87 3 1.276545078745988 1 2.1 3.5 4.8999999999999995 
88 3 1.295005577733141 1 3.5 3.5 4.8999999999999995 
89 3 1.2114793534626653 1 4.9 3.5 4.8999999999999995 
90 3 1.1055808967216687 1 6.3 3.5 4.8999999999999995 
91 3 1.1434570466811458 1 0.7 4.9 4.8999999999999995 
92 3 1.2121793361028645 1 2.1 4.9 4.8999999999999995 
93 3 1.0398186679574715 1 3.5 4.9 4.8999999999999995 
94 3 1.0948562307557976 1 4.9 4.9 4.8999999999999995 
95 3 1.1574741071777543 1 6.3 4.9 4.8999999999999995 
96 3 1.3351854342168623 1 0.7 6.3 4.8999999999999995 
97 3 1.1698579997953602 1 2.1 6.3 4.8999999999999995 
98 3 1.0965258571425243 1 3.5 6.3 4.8999999999999995 
99 3 1.0071661733253827 1 4.9 6.3 4.8999999999999995 
100 3 1.3439575730736357 1 6.3 6.3 4.8999999999999995 
101 4 1.3985693566337423 1 6.31 6.3 4.8999999999999995 
102 4 1.3985693566337423 1 6.32 6.3 4.8999999999999995 
103 4 1.3985693566337423 1 6.33 6.3 4.8999999999999995 
